3
 energy: -5.070544094137 gnorm: 0.000338077042 xtb: 6.7.1pre (5071a88)
O            0.00837641693916        0.37877734263575        0.00000000000000
H           -0.77687694132024       -0.17230116617263       -0.00000000000000
H            0.76850052438107       -0.20647617646312       -0.00000000000000
