3
 energy: -5.068980010041 gnorm: 0.047429789005 xtb: 6.7.1pre (5071a88)
O            0.00893500000000        0.40402200000000        0.00000000000000
H           -0.78731300000000       -0.18469900000000        0.00000000000000
H            0.77837800000000       -0.21932300000000        0.00000000000000
3
 energy: -5.070364885553 gnorm: 0.015729913003 xtb: 6.7.1pre (5071a88)
O            0.00864873323041        0.39108733410043        0.00000000000000
H           -0.77416163188974       -0.17851925049140        0.00000000000000
H            0.76551289865933       -0.21256808360903       -0.00000000000000
3
 energy: -5.070533443863 gnorm: 0.002117596449 xtb: 6.7.1pre (5071a88)
O            0.00843995008654        0.38165152331007        0.00000000000000
H           -0.77233466463340       -0.17383939628856        0.00000000000000
H            0.76389471454686       -0.20781212702151       -0.00000000000000
3
 energy: -5.070543037320 gnorm: 0.000670993962 xtb: 6.7.1pre (5071a88)
O            0.00840927147349        0.38026346748376        0.00000000000000
H           -0.77483257980697       -0.17308979690517        0.00000000000000
H            0.76642330833347       -0.20717367057859       -0.00000000000000
3
 energy: -5.070544094137 gnorm: 0.000338083116 xtb: 6.7.1pre (5071a88)
O            0.00837641693916        0.37877734263575        0.00000000000000
H           -0.77687694132024       -0.17230116617263       -0.00000000000000
H            0.76850052438107       -0.20647617646312       -0.00000000000000
